# vtk DataFile Version 3.0
2D Mesh Example
ASCII
DATASET POLYDATA
POINTS 5 float
0 0 0.0
1 0 0.0
1 1 0.0
0 1 0.0
0.5 0.5 0.0
LINES 14 42
2 0 1
2 1 0
2 1 2
2 2 1
2 2 3
2 3 2
2 3 0
2 0 3
2 1 4
2 3 4
2 4 3
2 4 1
2 4 0
2 0 4
CELL_DATA 14
SCALARS he_to_parent int 1
LOOKUP_TABLE default
1
0
2
0
2
0
3
0
2
1
2
3
3
1
