# vtk DataFile Version 3.0
2D Mesh Example
ASCII
DATASET POLYDATA
POINTS 4 float
0 0 0.0
1 0 0.0
1 1 0.0
0 1 0.0
LINES 8 24
2 0 1
2 1 0
2 1 2
2 2 1
2 2 3
2 3 2
2 3 0
2 0 3
CELL_DATA 8
SCALARS he_to_parent int 1
LOOKUP_TABLE default
1
0
1
0
1
0
1
0
